/*--------------------------------*- C++ -*----------------------------------*\
  =========                 |
  \\      /  F ield         | OpenFOAM: The Open Source CFD Toolbox
   \\    /   O peration     | Website:  https://openfoam.org
    \\  /    A nd           | Version:  7
     \\/     M anipulation  |
\*---------------------------------------------------------------------------*/
FoamFile
{
    version     2.0;
    format      ascii;
    class       volScalarField;
    location    "0/subMat1";
    object      Ta;
}
// * * * * * * * * * * * * * * * * * * * * * * * * * * * * * * * * * * * * * //

dimensions      [0 0 0 1 0 0 0];

internalField   nonuniform List<scalar> 
84927
(
790.048
835.871
809.474
825.199
829.511
791.339
777.374
790.558
776.025
749.093
760.053
749.767
760.215
779.2
783.196
775.508
778.405
787.346
781.228
725.001
781.381
760.345
736.639
710.369
704.336
734.685
720.743
714.796
725.263
720.381
718.783
716.613
692.975
719.158
699.211
703.473
703.473
696.97
727.686
729.931
724.901
724.684
730.97
728.695
733.72
721.327
733.025
726.518
718.622
714.61
710.086
688.031
690.868
722.831
721.808
710.674
724.884
720.144
727.972
719.274
707.26
618.15
605.672
667.975
677.749
613.696
630.328
618.211
658.643
672.721
660.773
666.348
632.085
633.863
662.442
656.291
645.276
660.852
675.999
598.542
643.332
634.777
680.386
651.568
679.327
680.759
676.626
673.61
652.995
652.818
655.17
672.277
681.664
683.65
675.457
663.525
585.055
629.85
688.26
688.73
637.187
672.542
679.335
592.024
658.568
673.14
659.682
658.329
588.72
657.99
682.771
686.899
564.894
572.658
356.887
360.863
559.252
522.406
667.061
683.34
408.131
498.256
589.685
362.128
367.242
663.737
673.865
667.001
659.342
567.778
410.211
510.15
575.545
419.961
516.703
670.658
652.512
668.978
669.853
647.733
663.25
668.92
644.312
675.611
677.13
665.241
667.594
644.629
643.888
664.206
668.377
671.605
676.116
667.502
662.354
664.782
652.908
664.173
666.259
655.803
658.892
656.178
653.328
656.943
657.361
681.665
665.212
667.014
663.915
659.571
658.587
658.304
656.469
655.99
646.429
414.326
403.426
395.01
411.713
419.36
410.576
434.867
442.457
418.318
398.861
399.249
408.103
416.592
416.362
400.768
409.58
434.694
427.576
450.002
442.996
416.362
416.592
434.694
410.356
442.996
404.488
404.488
389.258
379.485
396.778
377.858
383.399
390.227
374.697
372.987
372.65
383.399
357.975
354.009
361.896
357.35
361.896
372.903
376.133
357.337
355.978
358.913
363.577
357.264
358.913
360.157
357.898
355.131
350.817
358.913
357.898
371.556
362.695
368.035
366.52
362.864
359.737
372.274
366.52
359.143
362.03
369.274
364.359
360.358
369.141
373.694
387.558
376.199
376.199
380.344
387.155
362.864
372.426
373.881
380.553
380.553
378.188
376.262
365.369
371.67
371.67
361.94
374.416
374.389
380.382
372.139
361.041
383.364
379.085
387.889
367.784
372.349
391.465
384.131
387.295
391.167
397.982
387.295
393.022
391.167
387.569
392.103
387.295
404.439
401.972
403.622
403.098
403.622
397.982
410.617
387.163
395.442
410.124
410.124
402.957
387.163
414.155
381.577
419.961
386.063
389.783
404.31
400.095
442.457
386.415
409.186
409.186
380.653
401.535
395.56
409.186
399.906
401.535
399.207
385.843
380.558
380.653
401.535
380.504
367.229
380.504
377.053
392.558
380.504
374.276
369.689
378.279
378.279
382.738
405.642
413.296
406.848
430.733
422.518
422.518
415.871
425.4
427.665
415.871
419.627
427.665
426.758
413.476
379.631
378.513
368.116
361.754
361.754
368.419
364.022
355.441
360.993
356.598
365.111
351.926
360.993
353.362
355.283
372.68
382
385.236
375.408
369.824
365.979
371.251
370.075
370.075
378.721
380.075
372.616
372.957
370.835
360.94
378.721
380.521
374.034
366.056
380.521
386.345
374.034
367.24
372.492
368.352
363.727
378.963
362.49
364.623
371.145
381.729
364.571
370.371
358.693
375.975
364.571
358.931
374.452
371.69
373.187
378.857
364.935
361.345
372.933
374.83
361.863
361.188
374.727
366.26
358.578
380.329
353.362
358.728
355.283
356.668
352.333
354.499
352.159
355.496
357.906
362.15
369.828
363.504
380.646
378.602
378.361
378.319
378.251
373.615
378.602
384.891
388.267
378.602
390.62
384.891
390.967
384.063
363.513
376.015
378.319
369.773
397.446
395.491
409.705
408.616
387.666
377.194
385.389
374.264
389.7
380.086
392.432
377.208
390.923
389.596
386.599
363.513
399.516
389.818
381.729
386.814
396.765
389.818
386.814
397.066
400.313
387.393
379.334
380.16
375.911
374.284
398.514
387.643
368.147
370.256
394.422
370.397
392.015
384.823
369.055
361.533
363.513
354.642
360.748
356.566
351.183
355.169
353.615
358.443
363.084
352.333
352.988
360.586
353.615
363.304
363.304
355.432
356.526
355.656
362.056
366.482
366.077
360.019
363.768
354.333
362.97
372.968
362.701
355.553
358.535
355.656
367.229
368.498
350.148
356.526
356.526
368.498
371.325
362.701
363.845
356.526
364.101
372.284
370.685
362.056
352.911
350.148
355.169
359.005
352.911
354.64
349.657
351.183
351.549
349.41
351.962
353.771
361.647
365.63
373.694
373.182
373.182
365.99
368.976
361.532
399.862
377.845
397.553
373.694
400.722
403.487
416.057
401.493
400.722
408.067
403.487
423.235
413.996
379.657
388.653
389.239
384.337
386.809
394.444
375.569
378.554
393.937
377.502
378.554
379.657
397.088
373.124
396.415
391.48
371.036
391.854
436.125
436.125
407.853
441.481
435.149
416.076
435.149
424.785
429.549
438.013
407.525
443.185
418.69
438.545
425.951
435.149
437.022
410.296
449.422
457.015
450.308
453.004
449.422
453.004
461.879
455.301
450.308
457.015
455.301
437.798
487.376
490.078
453.282
483.046
465.679
469.854
453.004
437.798
453.282
469.854
414.055
419.04
432.391
465.679
439.554
444.214
467.447
429.549
422.161
451.262
419.04
414.055
444.214
447.607
443.929
439.099
433.807
443.493
433.807
440.576
456.747
423.052
434.598
422.514
457.003
431.606
427.037
440.475
461.625
431.606
423.052
427.463
431.566
457.841
454.815
439.099
433.103
433.103
439.099
453.588
401.765
410.435
396.415
422.117
407.628
396.415
409.704
391.48
396.425
390.567
397.06
432.296
394.444
408.033
432.929
445.134
463.881
450.804
454.552
445.134
440.569
453.334
469.493
410.296
388.784
376.579
386.826
378.613
383.606
379.232
386.826
388.784
376.579
383.606
374.657
369.853
398.545
399.936
390.617
400.617
399.936
410.15
418.211
420.039
409.676
409.676
386.626
393.693
387.316
378.507
379.53
388.706
397.83
397.83
387.316
386.65
408.38
391.633
390.567
375.446
362.83
362.83
366.541
359.189
373.117
371.036
361.711
361.478
362.616
380.256
374.843
371.012
381.734
359.087
356.131
370.556
383.344
385.015
368.127
390.746
380.256
367.205
370.556
365.337
360.07
359.483
362.475
364.393
359.008
362.475
364.393
368.779
375.593
376.903
389.396
391.03
380.005
385.014
391.03
386.912
392.334
398.362
413.147
377.044
395.953
390.583
390.031
384.008
394.367
385.458
400.626
394.921
366.513
374.647
371.9
377.383
365.78
390.233
385.925
383.444
400.848
401.545
397.797
401.545
400.848
395.353
385.014
395.164
410.07
408.861
408.414
411.247
422.316
426.724
431.995
440.35
436.435
441.433
415.349
422.546
422.546
422.989
433.433
460.681
449.045
447.139
456.556
452.808
444.715
444.715
455.173
460.004
485.71
462.958
504.426
501.838
481.323
485.71
528.091
542.505
514.012
492.394
481.245
504.426
485.074
459.979
504.426
483.037
453.684
480.87
484.652
485.89
473.706
470.974
464.369
467.465
502.524
476.871
395.442
418.926
418.926
407.071
426.917
405.498
426.917
414.238
407.727
422.558
490.753
458.107
449.247
490.753
459.619
459.619
494.064
441.887
454.921
441.887
438.963
566.669
530.497
553.726
555.352
569.584
561.659
587.275
588.894
588.894
529.253
518.859
567.504
511.702
518.349
573.032
523.423
488.008
500.556
481.815
506.004
493.032
500.556
483.754
486.159
494.117
466.174
457.629
475.965
545.287
542.626
542.626
507.662
517.082
495.677
505.757
475.003
560.005
490.078
490.078
504.41
490.078
497.986
497.986
474.489
474.489
485.131
497.986
512.185
472.769
512.185
476.407
471.032
472.062
461.389
477.833
477.833
454.939
465.532
471.032
443.539
442.923
454.939
448.61
433.024
433.024
477.833
483.43
477.292
451.25
474.675
464.042
490.517
505.018
507.011
483.813
451.315
507.708
464.042
490.517
456.772
484.15
501.109
513.741
497.891
525.613
465.573
466.332
458.053
461.836
471.45
498.518
462.428
461.819
457.63
452.897
454.668
444.008
483.813
467.809
469.754
491.864
444.808
445.588
430.977
438.107
424.725
427.85
431.561
420.297
425.452
476.894
440.925
476.433
450.727
420.512
457.381
496.684
496.684
500.059
500.059
500.059
514.095
522.44
502.234
525.178
595.386
522.44
514.168
460.926
502.234
457.381
507.708
556.752
520.474
507.708
540.417
515.046
574.027
513.848
553.053
564.478
536.69
560.926
520.32
560.926
536.69
501.257
488.69
526.21
529.308
529.308
495.92
555.352
513.038
513.038
483.454
514.539
508.746
529.253
514.539
529.57
498.533
497.554
553.726
517.283
542.521
487.407
490.676
481.885
456.058
506.656
487.407
500.439
503.179
447.962
491.612
497.554
438.246
513.038
471.127
436.4
441.142
491.511
451.468
460.99
444.479
468.094
505.998
434.524
505.998
444.479
455.476
447.962
448.017
448.017
441.852
444.575
435.648
505.612
466.829
441.142
491.511
486.789
457.381
458.541
485.195
454.921
485.195
491.511
470.939
504.098
470.939
468.094
480.499
458.29
498.139
437.812
442.029
436.4
442.029
434.058
427.972
410.509
410.509
428.653
418.187
427.972
450.229
418.187
412.175
436.4
413.87
416.763
407.275
403.304
401.677
417.198
407.129
394.071
414.992
417.198
417.044
405.871
407.855
412.175
416.769
416.763
407.275
407.583
417.714
419.405
430.689
434.68
411.566
422.705
427.431
434.68
420.831
417.714
428.242
428.242
427.431
449.052
476.541
487.022
414.853
396.765
415.789
423.547
410.607
386.226
427.393
421.918
439.623
439.04
410.012
433.513
415.728
431.158
414.038
429.583
423.547
440.443
445.919
452.925
424.001
437.375
419.228
418.226
398.62
420.864
432.717
431.095
454.358
478.122
432.717
450.646
424.944
437.566
457.455
485.688
468.549
462.736
491.612
504.655
538.951
455.894
461.376
455.894
507.552
521.503
541.536
507.552
461.245
527.211
485.219
504.854
459.003
482.052
454.674
480.331
446.687
501.365
448.277
458.529
439.623
481.931
492.15
492.15
478.062
509.641
509.641
510.175
502.523
463.424
457.387
485.218
507.887
485.218
449.25
444.309
482.997
459.003
472.51
485.218
466.01
482.997
472.51
436.312
443.316
519.751
453.214
508.776
494.649
494.649
468.37
459.003
453.214
433.214
443.504
428.557
438.467
459.003
437.468
428.977
418.226
419.416
432.058
402.531
421.463
421.165
440.908
421.463
421.51
446.791
432.628
441.759
441.759
419.961
429.075
411.843
445.985
442.457
447.773
444.468
444.468
447.773
444.468
468.806
480.792
494.196
473.294
494.196
480.792
468.124
420.383
416.72
395.725
395.725
421.045
389.878
421.045
398.673
424.541
438.142
466.838
466.838
468.612
454.543
474.026
465.701
527.849
510.598
479.527
510.598
487.474
508.776
413.818
465.226
462.271
462.271
475.852
443.974
412.455
447.788
462.271
414.652
418.187
399.131
414.992
422.468
421.206
400.401
400.401
394.542
385.889
422.468
457.34
490.927
469.949
490.927
469.949
512.141
497.288
497.288
541.754
494.196
527.268
576.942
509.276
511.144
527.268
509.276
511.144
597.277
526.64
538.185
487.144
479.472
490.111
479.472
488.938
479.472
514.036
460.45
464.393
490.605
463.102
490.605
490.605
490.605
539.719
566.983
586.268
507.843
508.337
511.745
491.974
556.058
556.889
565.692
484.034
465.216
499.307
464.532
495.624
436.23
492.026
499.307
463.304
436.23
461.521
481.716
496.844
559.975
566.983
482.282
519.999
481.716
494.45
504.396
472.673
507.799
507.799
476.284
557.505
466.149
489.919
489.919
526.626
490.316
510.425
578.868
576.921
559.799
568.149
548.717
507.799
566.833
551.786
561.742
526.207
549.525
499.307
527.772
562.052
556.237
527.772
553.376
563.985
582.27
563.985
572.018
558.272
558.272
553.376
568.149
546.168
514.638
486.835
507.317
514.922
546.214
483.978
511.251
497.216
541.634
493.084
497.948
502.734
529.891
466.149
481.548
541.634
523.344
529.891
488.639
492.972
468.302
470.253
568.291
488.519
505.496
495.995
478.176
505.496
455.877
438.961
488.938
519.854
474.59
482.518
441.335
453.19
443.46
460.462
462.876
456.407
478.176
490.664
550.68
490.664
499.65
514.638
499.65
538.578
537.396
503.033
473.294
550.68
558.341
468.124
558.341
444.468
424.012
422.288
433.939
427.738
455.274
455.877
446.622
426.758
455.176
446.622
421.621
410.837
458.284
471.002
463.619
553.376
526.297
537.396
550.68
558.341
540.407
539.613
539.613
540.407
497.145
505.029
536.06
462.121
478.347
488.357
484.448
471.968
461.658
433.181
436.23
459.968
466.088
472.845
460.86
487.022
488.901
534.864
496.097
496.097
489.435
488.357
554.368
472.845
476.174
540.065
492.244
552.907
560.39
554.107
535.46
492.244
512.416
521.773
520.602
535.425
551.5
521.773
544.025
544.025
472.248
496.846
490.996
463
466.639
479.346
462.6
489.227
447.003
457.273
445.879
435.116
467.835
477.765
474.889
489.227
437.173
464.664
477.765
439.004
464.664
492.995
516.044
500.352
532.843
542.054
535.757
489.227
513.407
475.87
523.505
499.375
560.335
511.607
560.335
585.936
500.23
564.704
600.103
480.303
581.459
500.23
531.991
523.505
559.787
464.939
516.448
499.209
559.787
594.541
594.541
596.516
552.988
551.5
487.022
563.111
555.307
555.307
501.257
527.702
506.907
562.086
537.349
537.349
562.435
537.349
552.417
546.169
549.784
559.861
559.861
559.861
547.305
553.999
537.931
515.309
556.779
563.01
532.843
547.76
588.951
616.164
559.959
546.1
642.066
568.488
547.76
606.669
559.833
594.813
594.946
567.4
546.1
518.569
544.606
546.1
527.182
550.95
516.342
546.401
530.571
516.342
550.95
591.24
572.188
583.305
552.075
567.902
556.958
533.352
556.665
515.66
552.665
519.656
527.523
515.419
519.656
519.656
496.415
497.826
497.826
492.284
476.884
475.204
477.765
492.23
519.656
491.539
508.808
491.539
522.674
510.076
572.95
492.284
513.836
476.884
516.342
510.136
475.395
499.15
534.512
561.008
534.512
492.259
512.15
521.161
541.401
502.917
535.735
557.235
520.726
524.734
538.658
600.349
544.84
542.763
566.654
537.8
542.886
544.84
523.52
512.15
507.169
509.084
494.584
502.917
502.917
490.732
506.64
493.209
498.163
482.794
533.571
541.852
513.615
499.578
468.017
466.907
499.578
496.78
497.198
491.437
476.4
476.4
491.437
497.198
442.031
461.964
449.163
492.405
501.137
458.49
446.417
476.683
466.577
487.321
482.791
466.577
435.549
453.698
466.577
465.676
439.356
437.529
466.577
461.601
448.313
500.949
500.949
493.362
493.362
493.362
510.478
521.855
511.041
511.041
521.855
514.835
496.882
510.478
496.882
499.317
514.835
496.882
510.478
456.626
452.873
483.999
475.204
458.989
480.294
470.595
470.132
470.132
492.259
462.002
523.52
462.947
516.047
423.033
445.445
420.176
428.373
435.084
423.033
447.69
432.707
448.921
441.84
451.838
449.525
426.198
442.879
420.077
434.701
428.808
434.968
417.243
449.525
428.808
420.176
447.825
447.825
457.126
462.473
439.34
440.683
427.919
411.892
423.798
425.374
452.873
416.628
431.89
454.949
411.892
426.14
418.235
441.544
426.039
420.957
432.509
438.765
427.04
420.068
402.783
404.086
404.086
407.705
399.59
406.378
409.556
398.969
385.716
399.849
406.378
385.716
399.964
395.531
380.949
392.461
403.068
391.576
392.461
399.957
391.576
387.168
391.666
402.021
404.656
397.356
408.7
421.406
402.944
421.406
391.576
391.576
378.126
380.256
382.842
379.444
405.729
407.269
407.269
412.538
426.253
412.538
432.509
411.956
415.246
407.234
401.879
423.782
422.561
397.816
385.716
389.891
389.891
399.604
398.624
396.254
397.241
407.581
415.949
414.136
417.171
417.171
412.534
431.092
423.594
432.519
425.918
405.662
405.14
413.24
414.663
428.403
387.825
399.753
402.021
387.825
433.616
433.616
424.62
479.216
475.204
469.493
479.216
469.423
444.138
448.346
442.031
449.163
417.171
441.974
430.892
412.843
452.466
452.466
438.883
452.17
485.448
485.437
503.64
425.607
437.616
429.729
422.096
420.812
409.556
406.305
421.071
409.483
409.472
404.216
404.216
400.246
406.421
425.713
407.19
425.713
410.535
418.721
391.191
410.535
391.458
391.458
415.119
389.053
382.999
376.964
391.458
387.891
387.891
391.014
372.426
384.261
387.891
387.891
382.955
386.508
386.508
386.508
379.444
384.292
410.103
421.884
415.134
404.605
422.966
400.57
401.527
401.413
413.515
404.24
425.589
404.24
402.583
401.364
426.194
422.548
401.224
412.839
392.477
391.754
424.923
424.923
417.309
422.563
417.176
421.435
419.634
418.4
452.574
452.251
458.654
466.149
436.786
462.876
443.46
430.301
449.874
443.41
467.861
491.912
481.215
481.215
437.756
447.864
463.102
484.389
436.153
443.634
483.574
429.076
443.634
434.781
428.085
417.309
429.076
396.421
405.182
398.207
395.129
413.021
424.012
422.463
417.022
418.75
418.75
436.153
390.289
388.981
805.081
805.081
757.389
782.727
774.624
736.759
760.345
790.048
803.452
749.093
763.982
737.164
733.783
749.899
709.03
725.006
706.295
704.016
725.001
790.97
785.291
755.149
747.376
755.014
760.215
749.093
753.424
747.957
737.284
360.786
361.743
567.744
569.984
700.192
698.648
704.619
660.301
625.721
660.815
638.501
699.892
654.808
656.154
656.56
656.446
632.67
653.739
641.443
656.154
644.612
644.803
588.072
642.802
639.537
615.073
627.849
720.428
620.114
628.012
701.993
652.097
647.631
660.334
663.055
616.22
618.221
594.102
635.294
635.294
601.666
643.331
640.932
616.021
639.253
610.456
652.097
647.397
647.631
615.254
633.129
659.772
662.817
647.909
636.345
660.852
646.475
646.404
642.465
642.014
641.151
645.958
644.879
642.772
640.8
638.552
645.485
638.552
629.223
629.223
662.62
656.613
643.603
661.14
650.85
636.345
632.08
632.08
591.353
688.614
673.447
646.498
644.503
610.141
602.47
703.493
625.584
626.006
618.631
620.262
643.603
657.878
650.447
631.684
648.844
614.087
653.494
649.251
649.769
662.003
617.256
688.031
652.674
657.812
639.808
638.565
687.18
626.065
651.003
630.396
643.932
650.29
633.021
647.782
606.356
633.021
636.901
620.661
600.664
649.646
613.442
628.835
615.658
597.801
651.003
661.952
625.873
642.054
638.728
636.782
638.728
639.131
605.814
622.317
602.583
602.583
648.583
644.881
654.628
646.534
635.475
648.497
615.121
612.424
619.622
626.108
624.897
642.294
640.589
652.709
619.252
652.709
654.628
629.289
650.524
646.507
648.669
646.701
719.158
719.572
714.701
704.736
719.158
652.599
652.599
619.252
652.686
648.66
648.448
625.364
625.364
642.927
662.636
643.874
643.874
628.139
647.445
624.101
638.484
656.879
649.894
659.551
652.155
618.074
646.977
639.369
676.208
648.055
651.922
668.402
646.977
719.197
678.112
723.35
664.619
665.079
668.402
676.935
681.771
641.204
672.777
667.647
626.929
648.523
632.507
615.005
636.12
637.578
642.238
599.617
650.27
653.152
629.673
605.408
681.356
647.202
664.763
647.202
620.276
627.396
613.341
617.103
617.14
586.134
596.877
602.493
601.036
596.877
363.268
736.949
679.7
674.392
692.975
687.751
675.496
634.86
688.717
654.939
670.227
711.268
616.903
641.084
611.42
616.305
630.174
594.259
691.072
674.822
676.005
692.78
694.466
695.305
695.305
695.305
630.174
620.753
620.753
647.412
641.204
655.776
655.433
665.613
665.375
674.269
662.138
623.308
636.229
636.229
358.355
356.762
354.877
360.205
357.806
356.045
352.171
351.226
349.665
348.053
347.355
346.788
346.87
350.041
348.141
357.633
361.333
373.795
377.155
382.178
384.813
349.544
348.613
347.625
347.485
347.158
347.952
347.829
348.588
349.846
349.944
362.336
362.014
359.905
364.217
348.649
351.706
366.997
367.484
371.927
372.594
363.069
364.177
362.221
365.081
375.936
379.928
386.029
364.483
367.865
369.99
374.356
372.614
391.279
391.408
367.682
365.962
369.288
365.962
371.662
368.461
376.63
373.337
372.675
383.355
383.223
385.978
398.002
398.254
406.257
406.257
404.547
407.215
381.256
368.505
365.889
370.166
374.152
377.776
379.265
376.63
376.845
384.209
384.209
389.959
389.64
395.142
401.929
397.857
395.847
397.857
416.356
416.759
379.487
376.884
377.597
379.69
381.22
384.209
403.153
395.159
395.159
417.214
416.32
422.968
397.355
396.925
389.046
388.658
385.315
386.385
385.694
394.2
389.136
394.2
408.862
423.165
438.673
437.933
398.11
396.925
394.622
403.391
398.246
408.132
415.157
418.852
408.862
416.031
423.353
420.302
425.208
437.55
419.66
422.967
429.878
427.136
435.41
435.435
432.356
433.808
448.678
433.808
448.645
447.371
448.791
434.448
431.763
447.659
447.659
448.519
457.274
448.678
448.678
439.183
443.592
473.835
554.238
501.677
464.066
452.022
457.519
556.268
352.206
357.019
355.218
361.219
363.038
366.103
374.665
367.228
367.228
376.546
381.804
384.719
390.027
402.84
432.792
497.301
546.82
509.604
509.604
504.049
564.054
552.389
476.302
479.899
472.992
443.037
448.54
437.925
432.578
414.793
424.019
414.793
380.551
377.11
381.264
363.431
360.852
505.222
538.367
538.367
518.139
551.023
536.702
520.61
536.702
548.292
534.148
550.951
546.726
557.548
545.894
554.729
565.467
562.376
572.061
565.649
575.255
570.936
559.836
559.836
580.551
569.781
558.379
574.995
569.669
581.066
561.405
569.001
574.913
594.223
596.429
596.429
592.891
633.458
592.891
605.363
575.567
573.484
602.178
604.419
610.954
593.802
565.103
565.103
604.481
601.221
603.867
581.978
586.64
586.64
590.981
603.107
605.723
584.113
581.978
576.821
576.821
577.368
597.637
571.135
571.135
571.135
592.363
593.273
575.907
633.954
592.918
589.08
632.454
576.35
584.96
644.312
645.605
559.692
580.39
563.534
563.534
602.781
664.658
657.259
575.792
620.022
623.489
559.888
623.489
536.06
578.849
555.644
625.636
621.758
569.131
604.404
565.601
622.25
585.487
632.458
553.223
624.284
570.581
577.769
630.776
621.183
623.04
653.123
618.797
628.404
621.183
621.183
558.134
558.134
546.481
575.874
548.383
534.247
546.481
546.481
652.112
632.879
589.121
662.354
662.354
670.761
635.01
569.119
565.863
610.946
592.827
681.552
670.728
646.269
673.084
671.156
667.596
582.763
685.544
569.119
565.863
613.068
611.625
609.416
582.794
596.893
592.961
597.937
597.937
667.585
678.112
593.809
594.881
587.704
641.204
588.583
588.583
587.704
589.33
589.238
589.238
637.23
569.144
572.906
572.906
577.493
577.493
584.101
580.163
578.562
582.791
575.538
587.169
567.053
636.88
623.517
643.509
586.697
633.07
618.996
627.106
609.118
620.009
571.984
558.001
529.945
669.687
616.274
639.111
628.006
568.881
630.551
593.558
593.558
524.651
530.362
515.482
538.549
536.912
525.972
500.758
522.932
544.615
544.615
518.091
586.134
558.894
545.282
545.282
518.091
596.877
586.134
540.923
474.229
487.297
506.271
507.156
489.176
517.399
517.399
515.19
519.325
441.937
467.06
477.925
484.25
488.175
506.785
509.74
509.74
514.918
443.157
453.852
458.82
451.892
456.22
463.787
462.144
468.442
491.225
477.387
472.722
494.95
492.247
437.128
437.987
442.676
451.005
461.845
461.845
469.136
469.374
475.7
427.506
411.466
427.506
431.719
423.401
435.242
410.079
410.079
433.087
429.681
421.033
425.411
427.939
448.595
455.251
455.251
459.607
435.419
459.607
470.132
470.123
474.741
453.341
474.537
480.032
415.797
403.591
415.797
404.417
406.942
405.741
407.575
398.43
398.43
410.424
409.815
393.047
391.44
420.921
419.545
425.193
443.658
456.201
459.08
465.809
470.624
403.629
399.135
398.849
400.754
396.215
398.335
389.442
391.469
416.244
420.754
422.097
432.763
428.682
454.853
457.564
384.61
386.95
377.355
382.915
386.049
397.396
397.396
403.964
406.206
412.785
413.156
417.728
417.102
411.247
423.579
424.649
428.682
429.821
429.624
372.867
377.355
371.276
394.186
395.804
398.67
403.597
398.67
406.723
395.814
404.328
403.519
408.792
422.49
423.091
423.091
429.837
434.268
366.458
368.983
367.016
365.415
390.281
392.36
413.93
413.93
399.319
400.593
417.095
395.164
428.1
362.45
363.136
362.785
362.785
359.534
359.534
357.884
359.139
386.658
390.485
381.344
403.038
406.767
355.203
366.709
369.762
376.222
379.464
392.813
357.204
351.639
349.202
350.804
349.436
352.585
350.518
351.302
350.089
398.355
515.855
486.705
481.436
477.012
471.929
461.54
461.54
445.493
450.655
435.877
432.499
428.701
362.791
359.571
387.665
388.824
396.956
480.522
549.797
523.749
546.155
531.795
540.166
531.927
536.742
545.609
546.155
546.155
660.929
651.568
469.465
450.306
469.465
489.215
641.611
641.611
457.11
525.402
530.21
528.523
543.109
559.785
604.655
421.212
430.533
459.931
463.775
468.128
470.642
414.587
421.212
439.733
450.692
459.207
459.853
467.588
450.688
478.68
478.68
496.162
517.226
524.854
530.071
538.302
519.522
527.779
554.46
554.46
643.378
451.143
475.119
475.119
451.143
452.777
551.034
560.711
584.562
590.112
613.82
612.545
418.714
420.916
426.878
431.287
443.597
448.965
426.148
436.508
435.158
425.276
425.276
446.856
435.158
446.856
452.777
463.729
497.288
537.6
548.846
590.112
412.451
400.089
416.813
423.504
501.433
508.291
584.377
598.932
400.089
410.975
414.689
459.837
447.731
462.15
475.37
479.689
479.689
490.257
498.938
487.129
559.904
594.473
581.014
592.941
586.614
589.942
431.357
436.434
487.129
580.789
586.953
428.97
425.837
421.414
375.504
400.911
411.176
417.07
422.472
376.04
378.698
391.646
396.131
397.488
397.488
396.131
502.156
510.078
364.324
362.452
363.475
362.776
360.855
361.865
396.131
399.003
396.694
408.098
406.171
403.996
567.681
567.681
566.85
584.582
566.372
658.015
658.015
581.582
564.114
542.841
538.122
653.319
578.795
632.644
641.71
621.738
576.064
538.614
477.196
538.093
538.093
526.282
677.579
660.185
639.245
595.368
633.906
592.026
572.297
589.131
586.884
584.919
565.838
569.595
549.865
525.98
524.563
511.571
510.709
594.473
580.308
592.62
579.041
571.364
558.661
553.855
558.661
513.314
674.521
594.126
595.948
592.16
581.344
599.739
598.859
545.287
542.505
571.594
580.695
564.626
553.917
549.396
528.296
503.992
679.293
676.921
659.869
599.891
627.699
659.869
600.661
598.603
579.851
582.019
581.242
575.421
582.037
545.287
555.579
555.579
555.668
514.751
514.618
653.502
676.055
676.055
594.12
576.666
553.709
578.255
562.263
559.756
559.756
549.851
547.533
535.24
533.48
535.24
506.513
504.258
504.258
504.258
648.444
632.061
577.084
568.507
553.882
523.393
522.139
501.381
503.853
474.218
490.022
489.127
474.218
470.564
623.308
636.229
556.182
556.391
512.051
497.349
493.458
485.074
480.87
481.629
467.915
464.122
472.314
460.004
452.644
445.911
433.103
613.884
577.545
577.809
557.458
477.716
495.105
479.708
439.48
445.911
445.911
428.121
470.633
482.418
454.502
457.436
454.331
427.713
423.804
420.387
436.03
422.272
436.286
428.019
425.956
419.32
415.597
410.407
374.943
378.433
428.222
421.477
419.682
410.987
353.384
603.695
514.185
595.263
596.59
644.532
644.532
636.056
649.538
663.752
657.337
657.313
680.04
649.852
632.564
649.71
648.738
648.127
391.783
391.783
538.024
574.261
558.887
535.43
570.321
550.775
582.073
356.992
358.902
352.307
358.052
361.283
350.87
356.605
363.977
354.437
355.017
360.385
356.681
356.526
365.962
368.461
400.756
394.223
392.589
394.223
391.745
389.572
389.572
658.611
658.611
357.149
356.063
355.618
356.063
353.976
354.243
352.968
351.394
350.403
357.405
357.405
351.195
524.677
611.423
552.959
544.946
557.223
528.185
520.61
551.376
559.126
550.862
564.077
557.156
566.388
560.889
580.551
503.64
508.2
518.669
515.527
523.618
505.691
518.211
501.74
511.417
505.694
545.99
376.35
373.702
372.623
374.51
381.264
374.749
371.622
371.476
384.507
384.507
374.749
462.979
472.551
462.308
441.479
544.112
525.853
551.978
561.973
561.973
489.167
489.167
469.733
463.191
395.159
375.528
371.893
375.528
420.916
427.163
654.239
656.692
435.242
442.565
442.565
453.867
643.581
642.318
599.327
619.648
365.717
369.907
372.87
375.913
376.5
376.5
377.857
645.041
392.27
397.243
399.319
612.34
617.537
653.633
347.625
347.625
468.394
468.908
468.366
407.424
412.82
450.692
449.999
350.209
665.494
492.224
487.539
585.227
569.59
639.984
636.187
512.03
506.088
505.167
513.347
550.106
553.953
539.14
534.19
534.19
545.334
517.161
659.091
655.084
628.785
563.164
643.995
482.074
483.913
457.486
452.217
452.217
354.296
662.12
575.792
575.792
644.954
628.688
379.231
388.333
369.689
373.694
375.875
381.312
474.441
472.799
453.214
458.816
465.334
490.569
472.799
476.493
476.493
496.844
508.044
508.044
478.151
478.151
484.52
465.216
475.04
488.591
458.654
476.272
491.789
508.044
447.806
447.806
395.726
392.062
391.851
397.405
396.943
407.565
409.624
396.66
408.576
415.346
481.52
446.858
460.949
446.858
462.528
462.528
492.777
492.777
467.794
450.106
443.147
449.052
445.236
481.52
509.696
488.888
496.725
538.157
508.926
532.37
485.219
539.347
553.329
574.261
482.59
498.163
456.626
517.103
538.658
521.984
541.501
438.495
407.19
413
421.821
421.39
470.2
470.2
502.663
486.332
501.49
496.468
493.106
511.595
503.751
517.635
509.702
494.653
520.68
494.653
486.332
507.516
489.013
499.262
486.332
443.634
513.971
464.87
449.874
477.069
501.992
390.308
416.057
404.294
413.14
404.294
429.34
415.346
423.354
423.354
411.069
411.667
422.161
415.826
415.826
432.403
432.403
425.767
439.099
422.161
417.437
624.237
619.12
531.782
536.998
549.112
536.998
585.045
585.045
549.112
570.747
407.174
439.393
417.893
585.243
600.718
581.055
574.929
640.568
641.611
609.507
590.132
532.63
541.699
518.359
532.63
532.63
541.699
575.325
549.529
586.827
432.929
441.959
421.277
420.039
461.21
445.879
433.751
452.873
441.358
510.913
458.43
480.078
452.211
487.161
492.992
502.243
477.533
477.162
454.102
463.997
445.255
445.255
488.878
467.683
452.251
444.357
451.306
438.495
465.809
487.267
461.32
436.538
421.071
392.11
416.584
395.129
429.002
418.75
418.75
404.506
421.477
411.554
400.372
390.93
399.468
364.916
374.812
370.414
359.642
367.504
370.414
374.812
365.415
371.276
359.048
359.048
354.752
360.019
354.333
356.566
361.041
360.019
352.739
355.769
355.769
360.358
364.359
364.359
368.806
368.79
367.125
373.387
374.389
367.125
367.125
354.26
355.784
355.553
353.634
350.817
353.871
354.818
348.355
349.318
349.318
352.115
353.182
349.97
350.898
350.898
350.898
353.871
350.817
350.817
348.355
349.318
351.989
353.318
353.182
352.676
396.965
394.733
389.184
381.564
382.686
402.84
376.015
390.308
377.845
377.178
391.767
401.493
391.767
391.456
386.628
391.658
385.409
390.308
395.497
388.254
386.628
388.254
385.409
430.615
468.017
468.017
469.174
423.229
478.11
440.861
447.002
462.958
371.563
383.606
370.367
373.356
372.022
367.205
363.219
369.53
367.281
360.748
361.257
407.278
410.15
417.425
419.849
410.15
396.425
402.441
399.203
395.153
400.617
391.743
386.478