/*--------------------------------*- C++ -*----------------------------------*\
  =========                 |
  \\      /  F ield         | OpenFOAM: The Open Source CFD Toolbox
   \\    /   O peration     | Website:  https://openfoam.org
    \\  /    A nd           | Version:  7
     \\/     M anipulation  |
\*---------------------------------------------------------------------------*/
FoamFile
{
    version     2.0;
    format      ascii;
    class       volScalarField;
    location    "0.25/subMat1";
    object      Ta;
}
// * * * * * * * * * * * * * * * * * * * * * * * * * * * * * * * * * * * * * //

dimensions      [0 0 0 1 0 0 0];

internalField   nonuniform List<scalar> 
84912
(
833.471
844.793
835.392
827.248
839.49
838.202
825.01
802.91
819.032
795.145
803.777
835.871
802.602
809.925
816.251
823.853
830.737
801.322
829.511
775.795
791.339
771.618
782.352
790.558
753.699
757.667
776.025
783.526
767.433
758.37
779.2
783.196
767.322
772.968
775.508
778.405
786.033
786.684
769.962
763.889
761.203
781.228
760.357
781.381
735.867
736.639
740.918
734.685
713.47
715.605
715.531
712.327
720.011
720.743
725.263
720.381
718.783
727.686
729.931
724.901
724.684
728.695
733.72
738.326
739.226
734.001
721.327
733.025
718.622
714.61
710.086
714.087
718.256
705.997
722.831
721.808
724.884
710.674
720.144
722.221
727.972
743.707
745.243
719.274
707.26
704.184
714.309
724.163
682.006
685.301
618.15
605.672
667.975
613.696
630.328
618.211
670.276
667.096
666.721
672.721
658.643
683.562
682.643
666.348
662.442
658.481
656.291
675.999
598.542
643.332
654.304
680.386
655.635
634.777
679.327
680.759
676.626
680.815
652.995
652.818
655.17
681.664
683.65
675.457
655.378
585.055
667.975
664.819
688.26
688.73
592.024
679.335
637.187
674.092
658.329
659.682
673.14
686.899
588.72
657.99
683.34
681.369
572.658
564.894
532.097
356.887
360.863
559.252
522.406
519.268
500.326
408.131
498.256
589.685
362.128
367.242
663.737
665.536
664.779
673.865
667.001
567.778
410.211
575.545
419.961
670.658
652.512
668.978
669.853
678.549
678.368
663.25
668.92
675.611
677.13
665.241
667.594
668.377
671.605
676.116
664.173
666.259
658.896
657.27
660.929
664.658
658.892
661.14
681.665
656.178
653.328
665.212
656.943
657.361
667.014
663.915
659.571
664.306
662.544
658.587
658.304
659.085
658.183
656.469
655.99
668.767
408.103
417.352
427.856
398.861
418.318
435.045
425.276
416.362
414.11
408.84
410.356
408.01
416.592
427.576
409.58
388.333
388.847
400.768
395.782
391.036
381.312
379.231
376.175
374.437
377.914
377.858
372.987
369.852
355.342
354.914
362.541
357.819
358.607
367.504
363.563
359.642
357.975
354.009
362.731
372.903
364.567
361.667
361.896
363.042
359.135
355.011
364.75
362.695
362.03
366.338
376.033
370.8
366.2
370.553
362.864
373.881
376.337
376.199
372.274
370.381
364.325
359.088
360.379
364.02
360.358
363.642
372.139
361.94
365.369
374.416
373.387
367.125
374.389
373.271
376.262
368.79
371.67
361.041
369.141
373.855
369.689
378.188
379.485
379.722
378.041
375.875
377.538
377.427
379.797
389.258
388.282
396.778
368.646
376.442
370.382
384.077
379.085
386.063
387.889
372.349
384.131
383.364
381.577
385.286
378.279
394.43
387.033
392.103
387.295
400.703
401.972
405.58
393.022
402.957
397.982
412.819
399.019
410.124
406.023
407.268
403.098
410.617
389.783
395.979
404.31
406.018
386.415
399.207
390.577
407.529
382.738
385.843
395.56
399.906
398.787
402.72
385.681
386.48
405.39
403.174
386.242
422.518
413.476
408.535
426.758
427.665
416.036
416.219
379.631
378.513
383.132
356.598
359.501
355.441
360.993
363.759
366.146
355.283
357.584
358.728
351.926
353.362
371.251
375.408
375.514
383.568
369.689
379.856
380.521
372.957
372.616
378.721
386.345
371.145
373.187
371.69
364.623
378.857
378.963
374.452
375.975
376.065
370.371
370.703
381.729
363.727
381.111
374.83
374.028
374.727
374.034
372.933
370.075
386.763
370.523
377.744
380.329
387.511
382.185
385.889
389.083
354.499
350.976
350.862
355.496
357.583
354.417
361.533
358.308
356.577
352.988
360.586
363.504
354.744
357.906
387.666
369.773
384.063
370.256
380.646
376.015
373.615
363.513
367.209
390.62
389.615
388.267
364.247
384.891
401.535
411.156
409.705
383.009
409.186
391.273
389.596
377.208
380.086
374.264
395.962
377.194
392.432
389.7
398.134
395.959
386.599
390.923
385.389
386.814
396.765
389.818
399.516
418.076
415.256
414.25
391.224
396.792
385.655
409.373
407.174
394.346
410.12
422.071
374.284
380.617
387.643
387.393
379.334
375.911
391.26
380.16
382.856
369.055
384.823
378.319
379.639
368.147
370.397
356.898
354.642
359.048
363.304
367.229
363.768
366.951
378.251
372.968
378.602
349.97
352.115
348.355
347.864
372.815
366.52
370.728
366.114
364.77
371.15
372.426
362.418
362.701
368.498
371.325
369.461
356.526
365.521
363.961
366.077
355.432
367.987
368.407
362.056
372.998
355.169
352.911
348.298
349.41
380.683
381.613
397.553
391.456
398.624
395.497
404.294
402.319
405.872
395.881
373.334
374.92
382.164
379.406
385.469
385.409
377.178
390.308
391.767
381.564
377.845
391.658
373.182
400.722
399.862
413.14
409.937
399.855
416.057
399.604
401.493
424.62
385.322
396.254
424.785
388.254
412.534
414.136
407.581
386.628
408.067
429.034
394.767
433.616
417.171
377.505
380.089
388.653
375.569
390.392
403.487
393.937
379.657
378.554
417.437
416.076
441.481
435.149
432.403
436.125
411.667
427.391
415.826
441.543
440.861
430.615
447.002
444.59
444.214
460.464
457.015
453.282
455.301
453.004
450.308
455.654
432.391
439.554
451.262
433.807
431.606
441.601
416.661
410.435
406.598
432.213
411.069
424.742
413.31
423.052
434.164
440.475
427.463
422.117
405.902
457.841
427.037
443.929
422.514
461.879
456.747
457.003
434.598
461.625
440.576
431.566
435.474
446.431
447.607
447.724
443.493
378.685
396.415
388.754
391.854
378.257
373.124
375.618
375.446
385.528
391.48
371.036
395.135
385.445
398.739
395.638
405.34
404.307
390.567
410.471
409.704
396.425
403.829
397.06
406.35
394.083
432.296
419.849
417.425
415.977
389.81
376.579
380.661
386.826
384.337
377.502
386.809
375.189
374.657
388.784
386.478
386.819
383.606
378.613
379.232
412.41
410.15
391.743
396.951
393.825
412.388
398.514
397.83
388.706
398.545
388.625
371.956
372.174
374.489
379.53
395.921
386.65
398.796
394.084
393.693
387.673
386.626
391.633
367.173
367.484
368.968
371.353
362.83
373.694
380.256
381.734
374.843
377.292
394.366
382.842
391.989
378.126
390.617
385.716
393.85
380.949
391.576
360.07
359.008
362.475
359.483
362.193
363.062
375.593
372.3
368.779
369.963
376.903
369.305
375.414
392.822
380.005
385.014
389.396
391.03
386.912
401.765
413.147
403.883
398.713
384.008
390.583
377.044
371.9
377.383
374.647
370.55
389.627
390.233
388.881
383.444
385.925
385.458
395.353
401.545
397.797
400.848
415.349
398.83
406.169
422.546
422.989
407.628
426.724
440.35
422.316
436.435
436.985
431.995
441.433
419.766
447.139
452.808
449.045
453.684
457.606
467.121
484.652
473.706
485.89
464.369
470.974
410.07
429.132
418.926
426.917
414.238
425.189
408.936
411.874
422.558
458.107
491.921
495.935
459.486
472.269
461.785
474.231
468.977
438.963
552.277
542.916
536.434
539.199
544.66
558.827
550.356
514.644
526.462
599.822
627.451
553.726
555.352
574.027
575.959
562.611
569.625
573.032
567.504
524.279
534.874
514.388
523.775
518.859
547.601
539.673
500.383
506.004
481.815
488.008
483.754
523.423
493.032
486.159
511.702
476.871
457.629
475.965
466.174
494.117
494.522
502.524
517.082
507.662
495.677
475.003
495.256
510.623
501.109
529.373
518.134
497.119
503.496
498.806
507.973
531.09
523.273
535.767
527.705
530.299
469.854
504.41
490.078
488.765
461.389
471.032
481.868
474.489
465.532
449.318
445.134
443.539
472.769
433.024
442.723
437.197
434.741
427.061
443.921
456.406
451.492
474.387
494.294
477.833
491.81
483.262
486.818
540.417
549.778
507.011
513.741
550.382
527.702
501.257
478.395
488.69
526.21
526.939
536.69
475.948
513.326
463.037
460.236
483.813
456.772
510.968
476.087
468.384
451.315
464.175
452.009
522.674
515.66
497.986
485.131
465.573
471.45
458.053
461.836
461.819
454.668
457.63
452.897
444.808
469.754
444.008
491.864
467.809
438.107
427.85
431.561
430.977
424.725
445.588
425.452
420.297
476.894
476.433
546.028
525.178
520.681
537.539
513.245
537.098
528.396
522.44
505.029
514.095
500.059
494.569
502.234
556.752
537.478
553.053
564.478
580.755
560.926
514.796
508.746
527.84
521.068
513.038
483.454
493.757
505.998
498.533
501.388
503.755
517.283
529.57
460.99
459.008
517.765
507.762
508.513
536.998
497.554
516.321
514.607
476.541
469.405
487.022
521.159
492.203
542.521
484.027
509.696
482.387
458.772
506.656
524.542
462.786
462.736
527.467
472.482
466.313
517.962
492.777
455.191
456.655
460.949
481.52
481.885
487.407
491.612
513.677
438.246
459.527
423.374
448.017
444.479
430.108
447.962
423.941
434.68
455.476
445.138
456.058
490.676
441.852
479.879
480.499
494.064
470.939
504.098
456.452
451.312
470.716
442.907
413.87
416.763
416.697
416.769
428.264
411.309
403.304
394.367
400.048
407.275
400.626
401.677
394.921
397.819
394.318
422.705
412.163
420.831
411.566
417.714
407.583
419.405
438.207
427.431
446.858
443.353
432.227
428.242
426.76
420.826
445.236
462.528
429.678
449.052
450.106
467.794
448.427
445.276
439.393
443.147
442.701
425.916
420.201
414.853
410.8
387.487
391.424
390.354
396.012
406.618
412.649
408.702
410.607
415.785
417.893
428.083
416.078
430.75
415.871
414.038
432.864
410.012
439.04
431.158
444.264
397.766
418.226
446.992
439.623
450.037
452.605
455.894
470.91
478.122
432.717
454.683
437.738
431.355
461.376
457.455
450.646
437.566
458.143
459.108
485.688
504.655
511.728
516.573
503.179
500.439
531.137
525.302
507.552
509.731
473.275
509.754
464.981
524.069
490.244
552.364
448.277
485.834
471.476
458.529
501.365
486.337
482.59
538.024
507.887
538.846
524.149
509.641
466.01
485.775
492.15
478.062
510.175
466.326
482.997
449.25
506.317
472.51
444.309
485.218
451.711
463.424
457.387
459.003
476.157
474.623
438.142
432.058
421.51
418.723
432.628
411.562
446.791
436.418
411.713
447.773
441.759
445.985
444.468
482.988
469.949
494.196
419.152
415.957
416.72
432.046
400.565
404.654
420.383
393.959
398.673
394.894
421.045
420.594
395.725
389.878
424.541
435.423
438.669
475.852
469.22
462.271
447.788
469.606
427.309
458.29
443.974
431.9
442.34
516.828
530.195
524.877
504.163
497.01
498.139
513.98
414.652
414.492
414.992
463.819
468.922
396.119
399.131
394.071
392.65
400.401
394.542
401.341
413.818
473.7
490.927
482.079
487.144
510.007
511.144
509.276
526.64
488.324
527.268
638.565
597.277
639.808
657.812
574.929
517.084
538.185
596.874
479.472
475.549
513.298
482.518
476.768
488.938
514.036
490.111
535.682
503.304
502.333
490.605
506.694
488.519
505.496
503.875
541.634
667.363
627.883
500.556
545.307
518.359
518.079
529.239
526.792
522.58
541.718
504.713
511.745
484.034
491.789
529.265
508.337
465.216
519.999
500.988
476.272
452.364
449.168
497.948
542.608
555.511
493.084
517.502
526.626
579.654
582.057
585.435
558.151
582.27
580.814
568.149
595.754
558.272
563.053
569.587
514.638
537.346
495.474
507.562
570.792
574.95
561.755
526.579
462.876
468.302
478.176
502.734
487.171
552.839
499.65
474.59
537.331
550.68
490.664
538.578
558.341
503.033
537.396
438.265
455.274
455.877
475.691
453.19
438.961
433.467
443.46
416.906
488.154
471.002
484.494
495.869
463.619
510.139
526.297
542.082
518.694
540.407
576.393
561.553
555.583
570.382
490.026
465.226
512.16
500.613
477.985
446.461
488.357
449.874
449.775
471.069
452.04
425.079
410.837
436.23
434.618
420.929
447.047
437.02
422.615
421.617
425.589
461.273
441.812
432.543
449.782
464.532
495.624
475.87
428.403
491.974
453.087
427.669
463.375
442.284
459.181
460.86
464.863
450.804
487.837
477.653
459.968
463
462.406
447.543
472.845
496.846
512.416
489.435
482.708
520.602
491.539
488.901
506.907
466.088
497.541
476.174
496.097
488.888
522.076
520.863
533.591
492.244
535.46
533.857
549.664
528.311
546.898
585.112
585.087
584.9
552.907
561.807
503.889
551.628
530.169
471.652
462.6
444.521
507.843
565.692
564.704
580.551
559.787
556.779
539.325
591.816
564.676
572.334
569.14
555.307
534.864
555.929
530.518
535.307
551.978
548.148
564.486
562.435
549.784
559.959
532.044
616.164
638.385
625.269
567.4
594.813
594.946
606.669
577.301
550.95
583.652
475.204
476.884
475.395
501.607
467.155
492.284
459.626
479.216
556.665
445.879
439.004
453.334
441.959
447.003
473.804
485.019
469.493
454.552
512.185
513.836
534.974
499.15
534.512
507.694
612.474
571.529
564.406
456.156
501.038
524.56
526.735
575.823
560.127
566.654
528.308
538.658
541.501
557.931
609.32
579.412
575.099
489.862
496.78
475.342
454.421
491.437
476.4
442.031
449.998
478.557
441.685
492.547
500.274
486.613
497.124
453.698
487.718
439.356
462.83
482.791
465.676
447.491
477.196
511.041
562.958
514.835
511.041
537.254
541.926
496.882
499.317
463.636
460.697
469.423
448.313
483.999
452.873
466.577
470.293
543.92
445.445
437.423
432.09
448.921
483.455
475.708
438.06
462.128
455.843
451.838
476.682
441.84
428.373
438.68
468.275
447.825
459.756
440.153
450.676
428.808
426.89
434.262
434.701
440.683
426.253
412.077
411.031
413.717
414.319
398.744
412.538
399.957
405.729
402.983
396.392
411.956
399.59
404.086
417.846
410.759
420.176
407.705
406.421
388.202
382.697
387.825
397.356
388.862
387.168
383.564
426.198
404.656
408.7
416.628
424.674
402.944
402.021
421.406
417.243
387.957
383.344
380.529
385.015
407.905
396.879
393.224
408.513
411.892
427.919
433.751
438.16
441.358
434.968
425.918
432.519
429.293
423.594
421.111
429.081
413.937
404.295
398.215
389.022
413.515
418.211
409.676
421.277
432.929
420.039
434.861
442.271
442.75
440.569
440.033
456.236
463.842
461.21
468.894
452.32
441.974
448.346
461.964
468.258
454.933
444.138
469.611
453.321
423.782
406.179
391.737
373.17
379.208
379.877
396.935
410.987
415.119
394.38
408.691
410.546
388.359
398.561
387.568
389.556
377.715
376.964
383.439
378.526
383.079
380.019
389.425
400.406
464.291
469.807
482.368
463.133
503.64
438.883
425.781
452.466
435.141
422.096
421.39
421.821
421.793
434.159
432.182
409.483
420.203
421.071
402.653
409.472
406.305
404.216
409.99
411.094
432.707
417.309
445.255
417.176
448.109
410.535
422.225
425.713
418.721
404.81
434.437
426.124
415.965
400.11
400.246
410.108
395.622
399.38
389.053
380.279
379.444
374.521
382.999
384.292
388.54
391.884
392.187
391.191
392.512
387.127
382.955
391.014
386.508
392.114
387.891
401.413
404.24
421.884
410.103
400.57
409.549
407.646
401.224
404.605
408.188
420.438
401.364
390.967
391.754
401.527
422.563
405.345
414.445
405.002
418.4
424.921
409.848
426.155
447.69
435.084
461.32
444.357
491.122
490.618
509.297
513.703
532.664
488.878
477.162
467.683
475.219
455.967
427.584
481.215
467.861
492.972
447.864
455.574
456.407
437.756
430.301
491.912
436.906
470.253
443.41
434.438
444.412
461.366
436.153
443.634
428.849
502.408
517.624
485.246
486.751
467.994
463.647
477.069
477.825
463.004
449.874
457.18
438.683
411.554
434.123
421.65
421.477
429.076
445.433
418.75
428.085
414.79
411.77
395.129
405.182
405.642
391.167
413.557
416.224
414.142
407.222
422.463
417.347
417.022
417.371
417.845
549.452
848.577
816.337
808.509
813.627
828.458
725.001
788.684
779.493
746.777
794.637
774.907
746.438
790.048
755.014
811.756
820.342
811.856
803.97
806.75
749.899
733.783
745.718
737.164
741.746
731.885
732.428
741.252
716.665
753.424
690.713
360.786
361.743
567.744
569.984
556.268
700.192
704.234
711.334
690.689
676.095
666.405
671.756
659.268
660.87
653.318
652.149
610.562
588.577
638.262
610.249
654.808
652.069
651.25
687.212
598.187
615.7
720.428
682.502
653.176
701.993
649.945
658.485
653.84
646.404
702.415
715.27
684.915
665.995
647.817
647.631
659.772
662.817
685.263
704.336
692.204
647.397
625.865
651.833
660.634
660.938
649.203
646.661
652.696
718.501
638.356
635.82
651.821
631.684
653.494
649.251
649.769
662.003
639.953
698.282
685.16
661.345
662.12
687.911
660.419
675.391
640.52
617.615
606.764
606.054
653.961
644.712
643.384
611.813
643.383
642.933
648.323
621.519
635.906
615.658
636.551
638.842
620.787
640.52
641.375
638.218
635.913
620.011
648.583
644.881
646.534
644.138
604.259
642.294
640.589
685.666
648.426
607.929
625.52
690.253
657.327
654.628
650.524
648.497
646.198
641.807
624.219
608.445
649.387
646.507
630.427
605.859
648.669
646.701
622.248
695.268
649.71
648.448
642.927
666.653
668.227
662.636
658.83
654.756
654.819
648.127
668.785
667.04
666.067
664.148
657.756
649.025
628.785
609.512
682.069
678.403
673.776
652.981
673.456
675.868
675.701
669.067
719.197
723.35
682.136
676.046
672.499
672.055
668.402
676.935
681.771
682.15
672.777
667.647
673.31
656.249
658.035
648.523
650.215
626.929
629.2
624.853
630.754
637.578
636.12
643.851
642.238
622.388
599.617
628.295
653.152
627.699
605.408
635.995
614.026
678.816
680.272
679.66
681.356
664.763
647.202
675.648
657.313
629.681
617.14
613.341
617.103
614.42
585.511
698.23
698.261
685.756
704.83
688.717
706.127
685.712
676.483
648.579
700.289
670.227
683.765
718.932
712.56
700.154
689.542
642.693
614.168
641.084
691.072
692.78
678.959
694.466
709.765
695.305
695.496
645.105
630.174
619.648
658.611
677.087
674.011
641.204
655.776
663.745
655.433
673.909
678.737
677.24
676.055
645.431
649.16
360.205
352.171
351.226
347.783
346.995
346.948
350.344
351.991
353.319
355.654
356.467
371.371
368.807
368.576
369.857
377.155
382.178
384.813
382.686
386.2
390.033
391.804
392.34
354.947
352.969
351.596
347.485
347.158
347.952
347.829
353.346
356.269
357.233
370.812
373.437
377.37
378.96
352.874
348.596
379.469
360.787
363.069
353.098
356.681
356.605
359.583
379.928
386.029
403.714
404.631
364.483
367.299
367.865
360.645
358.465
356.827
358.205
356.605
356.992
358.902
358.052
360.385
361.283
363.977
362.947
379.118
375.088
382.332
391.279
391.408
398.476
402.837
408.459
409.631
411.695
371.288
374.077
374.201
371.382
362.662
361.336
362.828
361.301
362.187
366.49
365.962
369.68
368.461
383.223
398.254
398.002
403.353
400.425
404.592
404.547
407.215
406.257
407.53
418.787
419.178
376.794
376.09
373.735
373.905
366.268
370.166
371.568
372.395
374.853
374.152
377.776
376.845
381.22
379.265
384.999
389.959
389.64
395.142
401.929
401.136
407.601
407.569
381.707
380.9
382.973
388.809
387.242
392.726
391.437
410.518
414.846
389.046
391.658
407.776
397
395.046
410.634
417.449
416.897
420.079
429.386
447.909
403.391
400.182
403.324
400.346
407.177
403.563
418.852
416.031
417.38
424.138
423.694
425.719
425.208
437.55
436.678
449.139
457.517
457.877
460.032
416.965
412.455
420.741
409.751
411.266
420.413
417.143
423.201
429.878
427.136
435.435
432.356
430.156
430.108
463.554
462.979
473.206
472.662
434.448
432.955
429.116
426.956
441.885
440.044
474.737
474.526
487.396
486.016
439.183
443.592
439.954
442.997
438.207
448.699
464.97
469.851
466.452
487.668
487.679
501.367
537.552
500.226
508.635
554.238
543.542
514.161
464.066
492.098
494.478
502.227
501.506
510.913
555.859
518.771
539.155
517.245
348.447
348.172
347.254
348.911
358.727
361.211
363.175
365.717
363.967
374.665
371.366
376.546
381.804
384.719
390.13
404.335
412.122
417.513
416.583
417.402
413.968
427.137
426.831
546.82
552.389
531.349
533.27
514.56
518.61
502.422
501.699
499.914
484.7
491.005
483.812
487.449
487.632
469.218
480.39
448.54
443.037
437.925
432.578
382.403
385.299
380.551
381.264
360.852
360.287
508.367
530.408
516.972
497.777
522.888
517.457
502.638
506.522
545.04
544.059
538.189
534.148
534.333
550.951
546.726
557.548
556.237
549.677
556.093
549.16
565.467
562.376
569.265
565.837
570.921
557.577
570.936
563.693
575.504
569.479
572.384
565.317
574.062
576.716
573.612
573.823
570.718
570.595
568.07
577.077
580.551
574.913
588.511
571.834
587.386
583.651
581.633
575.199
595.091
597.512
600.491
649.852
632.564
600.349
605.901
571.742
577.594
578.018
580.884
581.066
596.035
597.351
600.624
600.313
600.635
595.338
590.455
566.442
577.287
642.775
602.488
601.471
577.265
576.706
582.5
604.238
605.363
600.679
591.94
572.735
604.419
608.861
659.815
644.545
611.631
609.795
602.178
593.16
595.485
598.868
602.389
607.167
607.827
585.086
610.954
654.902
644.975
613.669
612.928
606.66
600.997
584.722
602.888
635.199
601.972
618.606
591.326
624.394
642.855
597.637
599.417
603.186
585.675
568.089
640.05
592.484
571.135
592.363
593.273
575.907
589.08
585.236
582.825
572.616
563.368
592.918
646.567
632.454
572.306
647.909
576.35
575.96
559.692
585.251
586.14
631.852
599.616
602.781
574.559
656.613
579.802
584.425
635.551
624.725
583.519
584.377
593.585
572.697
601.885
600.949
530.805
578.849
528.355
555.644
619.55
632.84
634.282
594.52
632.458
591.672
609.119
607.46
575.384
634.199
578.55
577.769
630.776
579.808
609.227
642.029
623.04
621.183
582.875
583.542
618.797
582.805
576.128
622.902
652.112
589.121
592.814
634.921
584.698
627.719
610.946
652.585
632.668
592.827
646.269
685.544
677.465
672.172
650.794
675.864
679.763
565.863
604.901
607.722
608.055
605.114
678.112
678.797
667.585
602.965
600.465
603.151
589.238
589.183
573.051
587.132
584.084
587.048
589.58
595.201
596.816
609.229
617.917
590.576
578.565
580.163
583.754
566.837
575.707
579.758
575.747
577.432
584.429
587.169
584.963
586.544
588.625
585.607
586.697
579.217
583.809
577.177
577.66
572.98
578.865
567.955
568.801
543.009
543.581
529.426
569.281
567.276
522.961
534.094
539.99
522.652
534.905
541.475
538.549
525.972
516.531
522.932
516.651
522.892
532.684
517.161
601.84
595.428
506.271
507.156
501.992
516.127
521.041
511.99
517.399
515.19
478.332
484.725
464.697
480.435
485.415
482.793
501.664
506.785
504.768
509.74
474.553
472.028
479.074
470.025
477.387
482.704
455.885
462.601
461.845
469.136
469.374
475.7
430.124
427.506
424.31
428.367
423.839
410.079
423.401
426.582
434.453
440.514
442.016
449.486
431.213
441.553
432.989
448.595
455.251
435.419
430.663
470.132
470.123
474.741
459.08
472.551
462.308
474.537
480.032
417.28
415.797
411.466
414.687
406.942
405.741
413.088
425.193
430.023
425.518
443.208
448.52
450.393
456.201
456.937
465.809
470.624
387.111
400.317
394.906
420.754
422.097
438.408
432.763
438.755
444.912
391.673
390.037
387.384
389.273
384.635
384.61
382.915
386.049
383.773
397.396
402.854
403.964
413.156
417.728
383.866
379.348
381.115
378.942
377.355
379.139
399.694
395.814
429.837
434.268
365.415
367.155
381.879
390.281
392.36
397.792
409.092
428.1
362.45
363.136
360.366
359.459
365.507
364.498
359.051
358.72
359.197
357.195
355.555
354.032
352.13
348.948
350.86
349.296
352.096
351.639
350.804
352.585
351.302
350.089
398.355
557.445
486.705
481.436
481.93
477.012
471.929
439.986
435.877
432.499
428.701
423.667
432.846
434.894
514.929
510.15
496.96
480.522
502.663
450.306
489.215
532.449
535.922
544.443
583.428
587.839
593.971
606.444
629.85
616.332
485.12
584.195
576.993
584.841
590.777
652.029
452.074
459.931
463.775
572.184
633.863
602.63
439.733
447.851
450.692
459.207
459.853
467.588
450.688
457.971
450.298
460.103
448.965
416.813
423.504
428.195
434.409
444.331
451.147
457.388
464.721
501.433
508.291
514.74
410.975
414.689
407.424
418.765
425.029
442.41
447.335
455.136
436.481
479.689
487.064
490.257
498.938
505.03
512.527
559.904
565.947
390.007
393.906
417.323
421.215
427.291
431.357
436.434
451.428
458.196
463.098
487.129
494.632
504.184
385.968
389.229
391.844
414.464
419.605
423.388
428.97
448.526
453.506
459.941
520.977
529.937
538.621
372.616
368.788
382.843
390.269
383.048
381.807
389.928
396.999
388.606
392.59
395.701
399.314
402.091
429.942
435.172
441.086
446.028
464.549
496.541
503.599
511.409
521.679
528.995
536.812
388.351
391.502
394.995
397.294
400.552
496.636
502.156
510.078
516.674
406.171
440.461
448.306
451.624
443.699
444.621
624.766
584.187
584.582
577.905
655.802
637.314
613.117
619.997
575.796
563.164
564.114
653.319
652.503
638.572
621.456
615.52
579.324
621.738
595.368
595.706
633.906
592.026
579.584
589.131
586.932
586.884
584.919
488.574
537.855
537.891
525.98
524.563
675.455
599.937
595.47
594.473
596.251
527.539
514.75
513.314
658.804
639.259
600.765
594.126
595.948
578.051
592.16
592.511
578.689
563.267
590.462
592.115
572.565
544.112
587.699
676.247
645.195
642.857
599.891
591.54
589.692
565.36
582.558
554.082
568.456
565.289
550.582
660.258
599.544
600.661
598.603
579.099
555.668
543.552
477.924
653.502
598.19
597.719
594.889
594.12
591.509
571.862
581.1
579.971
574.047
632.061
605.243
585.3
593.928
595.877
577.084
567.657
568.507
558.209
657.303
589.627
556.182
556.391
542.429
543.565
521.76
463.552
464.122
541.898
530.144
529.859
515.876
501.885
495.105
496.286
468.469
467.466
457.486
628.633
468.394
459.426
514.356
515.662
423.804
435.299
429.845
425.634
443.776
427.713
443.081
435.189
436.286
428.019
459.266
517.934
568.33
556.73
587.294
589.004
575.407
584.428
641.038
636.728
642.806
637.136
639.537
642.802
637.725
587.526
576.162
581.331
589.985
562.784
575.347
566.372
586.733
581.137
592.668
557.083
577.595
596.455
589.3
354.719
353.756
537.065
657.878
656.692
650.447
654.239
648.844
638.962
650.29
638.552
620.022
631.002
620.822
596.803
424.917
428.002
555.457
562.464
553.028
545.676
548.988
531.625
518.582
523.055
511.46
511.193
426.748
424.005
433.049
428.771
435.619
429.94
357.862
353.634
559.785
562.371
559.774
570.766
562.588
574.524
372.632
377.435
383.355
544.455
536.847
560.809
546.506
568.909
567.134
560.872
579.143
520.188
526.473
570.581
569.131
492.722
496.785
504.032
492.317
616.903
608.873
583.305
595.018
572.95
581.002
560.005
566.502
436.03
431.292
418.398
439.92
580.837
579.041
586.104
571.364
563.14
348.167
481.14
660.605
588.636
546.481
579.858
573.628
667.649
669.877
574.261
600.603
367.057
362.452
355.315
578.441
509.033
419.545
448.014
441.34
435.388
431.966
368.77
361.894
367.369
364.58
361.015
361.947
357.453
361.037
360.752
362.623
360.7
435.242
438.291
407.611
406.664
399.538
398.389
671.43
362.202
360.582
417.214
416.32
685.822
702.287
706.028
737.284
747.957
757.389
662.502
651.28
652.436
429.661
418.748
355.017
354.437
352.795
350.08
349.918
349.496
349.221
649.88
655.661
457.274
592.566
500.184
598.081
581.82
639.984
627.655
448.33
457.082
438.673
437.933
465.647
465.667
643.581
642.318
641.878
637.035
358.814
356.865
359.608
359.591
356.754
450.692
449.999
440.681
431.133
430.393
441.907
440.105
448.645
447.371
451.476
649.646
651.683
384.209
385.336
664.571
664.023
663.57
550.442
472.795
486.046
482.006
561.145
567.24
594.567
592.823
596.564
595.959
452.644
450.005
604.478
458.991
455.565
455.825
482.616
589.417
593.359
540.072
538.378
658.784
659.553
494.802
513.452
528.274
726.518
693.639
433.959
366.111
373.694
373.976
366.702
364.179
364.794
363.577
362.419
374.799
366.979
362.251
373.809
439.933
446.93
463.478
465.501
487.461
481.931
429.992
437.733
505.651
499.514
527.708
544.336
511.646
508.961
518.569
530.571
515.419
516.342
503.868
495.251
527.182
544.606
550.79
553.377
352.739
350.148
350.044
355.744
354.752
350.898
351.206
353.182
352.676
352.094
354.333
353.615
356.566
349.657
349.318
425.928
442.029
447.87
449.054
427.972
432.446
415.925
409.271
434.524
414.884
398.04
398.62
412.455
422.482
416.172
426.561
431.095
390.822
391.019
414.168
424.944
522.679
516.288
512.923
612.602
629.953
627.481
419.712
410.339
414.904
430.886
434.311
437.279
443.861
440.505
424.502
416.185
435.658
432.862
450.493
445.174
421.435
443.086
413.021
421.621
412.839
443.784
451.962
436.786
438.35
449.812
378.955
380.558
381.269
380.653
369.274
369.689
364.022
367.229
376.711
377.053
368.419
352.853
356.668
356.755
357.503
351.962
352.159
351.549
354.164
354.514
353.781
354.133
351.183
351.752
352.333
354.088
421.583
418.69
413.996
438.545
443.185
438.013
435.846
425.951
429.549
439.011
430.378
395.953
408.851
395.331
398.362
407.071
402.068
407.727
421.463
428.977
438.467
443.316
421.165
433.214
408.095
402.531
416.34
411.843
434.603
406.455
411.73
415.728
428.557
406.455
401.94
522.047
508.926
496.725
555.182
538.157
500.339
483.869
532.37
485.219
575.084
572.427
559.799
576.921
528.834
551.786
541.031
566.833
535.772
553.376
537.154
582.902
559.833
527.523
556.958
552.075
519.656
523.585
573.826
589.555
475.679
478.449
502.017
470.653
487.941
479.824
498.712
527.866
526.668
483.304
468.321
539.571
537.578
472.248
459.057
467.835
467.163
460.021
466.639
479.346
462.947
492.259
512.15
487.013
505.965
419.36
410.576
399.249
409.755
404.094
391.465
393.045
414.326
395.01
364.36
361.179
364.952
365.111
364.671
371.546
367.971
374.627
386.917
371.491
387.749
379.228
380.337
371.413
372.527
389.302
387.652
373.385
376.126
376.296
382.452
374.697
372.68
383.952
385.236
379.521
383.399
374.437
376.61
384.677
382
357.024
358.482
356.87
358.578
359.895
367.654
364.373
361.782
364.058
367.766
368.735
367.715
357.348
359.247
359.141
361.497
366.513
366.26
380.075
389.981
388.89
386.226
378.846
398.157
386.466
402.07
397.562
368.352
370.835
367.24
362.15
366.056
368.116
366.979
369.828
373.161
367.798
358.693
362.49
360.94
361.188
372.497
373.023
369.824
370.056
367.281
364.292
359.826
376.365
374.669
358.443
361.257
379.528
377.618
375.454
363.084
355.131
351.989
357.898
352.816
354.901
358.913
353.318
353.871
356.498
357.337
356.639
358.535
355.79
359.737
352.042
353.252
359.143
358.828
359.689
354.145
355.656
355.769
358.996
360.225
360.18
379.552
389.102
398.564
373.046
373.117
379.77
388.974
392.294
379.408
381.349
366.541
362.598
359.189
361.711
370.168
368.976
369.567
368.626
368.022
371.012
372.009
371.563
369.853
361.478
370.556
370.367
364.101
403.664
395.851
397.088
410.296
407.525
408.033
402.441
414.886
410.283
399.936
398.704
390.84
389.239
422.802
427.212
419.05
418.177
422.872
423.157
414.358
422.027
423.128
414.457
419.579
415.961
419.552
408.38
407.278
410.076
411.313
400.313
399.203
397.777
396.943
392.062
391.851
397.405
395.726
409.624
396.463
403.808
396.66
408.576
407.565
412.326
405.267
415.346
404.752
396.613
481.323
465.679
492.394
467.447
481.245
459.979
461.848
423.579
413.519
416.187
418.05
401.753
418.583
424.649
419.32
426.937
411.247
401.305
413.754
417.102
360.547
361.345
364.207
364.289
366.562
367.002
369.525
368.822
369.148
414.331
418.66
415.973
420.921
415.262
405.498
416.383
421.512
397.457